% Model:              Lifting Surface.mph
% Version:            COMSOL 6.3.0.420
% Date:               Aug 22 2025, 14:58
% Table:              Accumulated Probe Table 24 - 
AR                                              lambda                                            aoa_root (rad)                                    aoa_tip (rad)                                     rot (1/s)                                         Max Wall Resolution (1), Max Wall Res             Thrust (N), Thrust                                Torque (N*m), Torque                              Thrust over Torque (1/m), T Over Q                Ideal Power (W), Ideal Power                      Mechanical Power (W), Mechanical Power            Main Rotor Power (W), Electrical Power            Motor Efficiency (1), Motor Efficiency            Propeller Efficiency (1), Propeller Efficiency    System Efficiency (1), System Efficiency          CB Power in VTOL (W), CB VTOL Power               Total Power in VTOL (W), VTOL Power               Time in VTOL in minutes (1), Time in VTOL         Thrust Coefficient (1), Thrust Coefficient        Torque Coefficient*10 (1), Torque Coefficient*10  Open Air Efficiency (1), Open Air Efficiency
8.224693448682892                                 0.32651586284443973                               0.3831518719137976                                0.19475389419929948                               70.99971524273022                                 8.239391262347203                                 11.454739669967365                                0.3684626525049801                                31.087925986779737                                60.71622554819447                                 164.37279858992216                                189.62793337947895                                0.8668174338059319                                0.36938122407752805                               0.3201860847509768                                63.63567874877536                                 253.26361212825424                                17.3558292210333                                  0.041319549127233214                              0.02887478358170514                               0.22774925641673785
5.881934846443752                                 0.9106846421337687                                0.6182193342264368                                0.10373759194676307                               61.701491749173876                                13.674403661411688                                11.199481657232477                                0.4063668123202422                                27.560030292056897                                58.44615853468698                                 157.54106049372416                                185.8264363529251                                 0.8477860501749018                                0.3709900031872339                                0.31452014945647944                               69.41561182016949                                 255.24204817309453                                17.22130045367402                                 0.052579782793466985                              0.04126921115172018                               0.202774225742128
6.369636388495447                                 0.8461587295551607                                0.6020288606848596                                0.30619587316030283                               85.85758967079272                                 15.226458536194913                                29.58328110414095                                 1.2253380163375382                                24.14295542103852                                 251.25798096734232                                661.0197997682475                                 887.8420114787696                                 0.7445241284170229                                0.3801065884190355                                0.28299852644825013                               160.29035228107622                                1048.132363759846                                 4.193745133708271                                 0.07212174393149919                               0.06470742612367372                               0.17739126308574482
3.4008186622292396                                0.5173562736437772                                0.41550660947148377                               0.29885530881759553                               76.78268855288138                                 10.37282259227954                                 34.686518935316855                                1.545172007398377                                 22.44832210862979                                 317.918470069827                                  745.4525677923588                                 1098.701605669682                                 0.6784850080727691                                0.42647712786252184                               0.2893583375406543                                185.7696567853817                                 1284.4712624550637                                3.422108480339612                                 0.1043058499455647                                0.10030612376958219                               0.1655012773733793
2.0195097399062907                                0.7783563897370354                                0.5612076861007712                                0.07907433781490152                               79.50432894542196                                 16.449283777463577                                40.177144646673575                                1.8421353278488104                                21.810093992166813                                385.5245678723391                                 920.221076531129                                  1419.4613354998428                                0.6482889343421858                                0.4189477699485157                                0.27159920332495857                               209.08164160684322                                1628.542977106686                                 2.6990997853856724                                0.10090372135346173                               0.09715408931762053                               0.16529747890764332
2.481017618339691                                 0.8227094481232831                                0.650341674716985                                 0.25699679880834836                               66.87179937962526                                 14.4682041321075                                  40.12349894036049                                 2.061588706311315                                 19.46241692997591                                 389.1596510453669                                 866.2134124992301                                 1486.3838468219792                                0.5827656256836158                                0.44926532587685236                               0.2618163887325775                                227.78497072383692                                1714.1688175458148                                2.564274857299764                                 0.1490757674032324                                0.16269262723854627                               0.14583417626327883
4.917652599841856                                 0.937199902582867                                 0.7695860634503023                                0.16175470844910708                               83.98121315314367                                 15.565001117713521                                30.820247982873045                                1.2920304982754403                                23.854118013476395                                266.22429606982416                                681.7651187458321                                 932.5370922413249                                 0.7310863282737954                                0.39049269132390885                               0.2854838679177491                                165.80076125762497                                1098.3378534989497                                4.002047262595055                                 0.07741438366260907                               0.07004542489603185                               0.17589845224873055
5.755669711573939                                 0.3287456682722173                                0.6410700076593312                                0.2624853542314943                                64.57981433157732                                 7.95991975885034                                  17.887261848818255                                0.8418661294359836                                21.24715702816314                                 118.40121193645128                                341.60144369269057                                449.5065074555001                                 0.759947716055052                                 0.3466062984293669                                0.2634026648616929                                124.42326961996729                                573.9297770754677                                 7.658776692853164                                 0.07778350817407592                               0.07947948289412889                               0.1557588117857208
5.494269219030651                                 0.5705413359814133                                0.7094806178457221                                0.04602380607399363                               93.93628283613884                                 12.947635134658272                                31.120341727671143                                1.2111034997334718                                25.69585649328882                                 271.16337938660683                                714.8163838625657                                 938.3625131617805                                 0.7617699703859826                                0.37934690013868266                               0.2889750768846584                                159.0939067383826                                 1097.4564199001632                                4.0052615486999255                                0.06344705462703816                               0.05349840724009643                               0.18875164494516708
8.521257534978044                                 0.5907691953918807                                0.7284191162242353                                0.20311623405348464                               99.73866616378533                                 13.48210968843382                                 25.69222689409498                                 1.0322283188097017                                24.89006203949295                                 203.8027956094067                                 646.8732525330458                                 813.3882599969661                                 0.7952822586048375                                0.31505831290959946                               0.25056028668297575                               143.2893776491606                                 956.6776376461264                                 4.59465114164812                                  0.046825296427991915                              0.04084040621232061                               0.18247804268925077
4.877911006569098                                 0.7159517400522526                                0.48239508063345754                               0.1697182333535197                                98.08432468013822                                 15.64688136534467                                 36.34820760646423                                 1.322386859560485                                 27.486818508273057                                341.5715917590398                                 814.9632023115214                                 1080.3968371048456                                0.7543183896163467                                0.4191251712840813                                0.3161538242506835                                168.26277979700112                                1248.6596169018467                                3.5202547920195353                                0.06740445554333688                               0.05302117608622584                               0.2023295799529973
9.935950294522696                                 0.6977769982119515                                0.42697145512656337                               0.23764226042426206                               88.76124833512918                                 14.951662965160608                                15.303193539626383                                0.4850594852809825                                31.549106870390613                                93.70205013627867                                 270.5193102640599                                 313.3979879833582                                 0.8631813880005663                                0.34637841581369594                               0.29898740173550326                               80.84955518309187                                 394.2475431664501                                 11.149340246222392                                0.03523830887019926                               0.024251128810201302                              0.2312614429944401
3.928522778887916                                 0.252142100517886                                 0.4937125932755434                                0.12760152637265146                               83.20466504746095                                 7.901135117525279                                 34.156451221349734                                1.3424503897024598                                25.443361991887205                                312.22176326249064                                701.8200807846263                                 971.6780226120194                                 0.7222763759728005                                0.4448743656827694                                0.32132224460854913                               169.87627533508814                                1141.5542979471068                                3.8505395738991526                                0.08924203542386662                               0.07609866043572086                               0.18664337831922378
6.929983375220424                                 0.28191213638853535                               0.5306673686152285                                0.27412169751152965                               92.15078147158049                                 8.698009376282558                                 28.284736535176386                                1.136894164457109                                 24.878953045451656                                235.5762231612393                                 658.2622171195202                                 856.1044955973837                                 0.7689040537746384                                0.3578759604221153                                0.2751722767170563                                152.72244281354773                                1008.8269384109309                                4.357139795378378                                 0.06055401273831879                               0.05287398681364248                               0.18227243739574378
2.903849101958293                                 0.45735720326567686                               0.6951372086482378                                0.22836254717535862                               90.66267533218996                                 11.671875961412734                                68.37184442992111                                 3.5310437527082112                                19.363069171114592                                878.5501837337241                                 2011.460449272369                                 3822.718413166403                                 0.5261858792278276                                0.43677228853867534                               0.22982341066707326                               473.21181657154125                                4295.930229737944                                 1.0232009750931494                                0.14662181754450596                               0.16323114046829676                               0.14296038709512293
9.074424451383507                                 0.8926351246758628                                0.5483934386373258                                0.08442671727762603                               87.01029927941585                                 16.825737354274718                                11.762276412376371                                0.3517817356532335                                33.436290802689555                                63.089753537351186                                192.31972005133954                                218.37607754233602                                0.8806812642472479                                0.3280462009850546                                0.2889041430150245                                61.03373052856571                                 279.4098080709018                                 15.731731217125322                                0.028093958452282682                              0.01822823354211312                               0.24529487996568544
7.849848040798393                                 0.4156904151535441                                0.5852474754767092                                0.06273013213859949                               65.68181802221466                                 9.048869146466748                                 10.88610522521969                                 0.36781130331318884                               29.596983907670317                                56.22879650960176                                 151.79242706135398                                176.2223826757924                                 0.861368600041098                                 0.3704321592201319                                0.3190786303976463                                63.53475477660001                                 239.7571374523924                                 18.333552221663542                                0.04580976096916498                               0.03361155062498652                               0.21691501179004896
4.43590630197529                                  0.970158566430497                                 0.3865394548452677                                0.180537474943232                                 74.37239336312501                                 15.392542743309631                                18.60010369553095                                 0.7089823582968366                                26.23493162821897                                 124.57960480105552                                331.3042863414118                                 410.8092926284346                                 0.8064673615868448                                0.37602774831797764                               0.30325410606944153                               109.6183876990828                                 520.4276803275172                                 8.446130300436261                                 0.05912393021973439                               0.0485495537779649                                0.1938198194884718
7.557135945821495                                 0.22268628514886535                               0.7637788358644602                                0.145252297850983                                 80.80361003685594                                 8.090213557168369                                 16.211422778718553                                1.1822995895255841                                13.711772314175988                                102.2483638561689                                 600.2582962415389                                 811.0167740336825                                 0.7401305564323745                                0.17034060919505384                               0.12607428986656494                               156.64856421591608                                967.6653382495987                                 4.542479539415108                                 0.045189144989259154                              0.07161321698646045                               0.10042944726944356
8.901618930546608                                 0.36940147324875205                               0.507508662581585                                 0.10135309854673205                               95.0977171684609                                  10.956523535800248                                19.814859788772836                                0.6169642359180784                                32.11670731495026                                 138.13312917569104                                368.64635977103194                                434.13071773112813                                0.8491598145776621                                0.3747036299544259                                0.31818326493367705                               98.4253685170924                                  532.5560862482203                                 8.253778547469732                                 0.0398356622808445                                0.026945134485742293                              0.23529452290136196
3.130962959988121                                 0.4412625764083035                                0.7430950696307338                                0.11745879097001449                               68.50411802682358                                 10.427267388995835                                33.62815747022409                                 1.6680962312525118                                20.159602809589686                                303.4219280485594                                 717.9887654500419                                 1126.6536362784468                                0.6372755053822015                                0.4225998269741335                                0.2693125183093718                                195.29081956011998                                1321.9444558385667                                3.3251018835066586                                0.1269448178810458                                0.1359106043189332                                0.14865576800951902
9.61704874094362                                  0.6688248787485573                                0.6729341797204436                                0.21780684594399688                               72.37158999182685                                 12.048446219751186                                11.363190379762312                                0.41913752027682505                               27.11088802610021                                 59.953329814904976                                190.59193625014143                                221.93508885820356                                0.8587733342694286                                0.31456383199874477                               0.27013903084613045                               71.32232846030843                                 293.257417318512                                  14.988879190823202                                0.03935423143665189                               0.03151654191263438                               0.19873438152219133
7.227714685996205                                 0.7759139887019468                                0.4705566452884046                                0.28941762138069416                               61.65420170195342                                 11.482303634942959                                12.030825492069456                                0.46173677410976616                               26.055593070889863                                65.22905562873703                                 178.86979600586784                                214.1941057157102                                 0.835082718117712                                 0.36467339419673295                               0.3045324492510195                                77.53827466745632                                 291.7323803831664                                 15.067233860796465                                0.057113360175632386                              0.0475294382938015                                0.1912472336060648
6.700721852102427                                 0.6178846410260461                                0.3514515604570714                                0.05426053599948481                               76.31167194965789                                 12.099887127173597                                8.962044713864557                                 0.29959711437993414                               29.913654984337857                                41.94185324486316                                 143.65093703954153                                162.88512342628798                                0.8819156348833126                                0.29197062065330065                               0.2574934552807305                                52.6568194632986                                  215.54194288958658                                20.393246627881087                                0.027781061662258404                              0.020139296586636577                              0.21954556698981506
3.859538629564247                                 0.5337767164823779                                0.44641632034844664                               0.14949190202148313                               59.00410681624751                                 9.886110044205262                                 14.671733993528408                                0.5743294234295752                                25.545851204900814                                87.53901172901617                                 212.92329342347745                                264.9291573612181                                 0.803698979547075                                 0.41112933358076564                               0.33042422586073034                               92.95085956271127                                 357.88001692392936                                12.282328691557886                                0.07499126800289424                               0.06343044735690519                               0.188162491180829
2.481017618339691                                 0.8227094481232831                                0.650341674716985                                 0.25699679880834836                               66.87179937962526                                 14.468204132222569                                40.12349892782001                                 2.0615887047983725                                19.46241693817592                                 389.1596508629212                                 866.2134118635403                                 1486.383845286366                                 0.5827656258580072                                0.4492653259959311                                0.2618163888803203                                227.78497058751248                                1714.1688158738784                                2.5642748598008627                                0.1490757673566392                                0.1626926271191507                                0.1458341763247225
