% Model:              Lifting Surface.mph
% Version:            COMSOL 6.3.0.420
% Date:               Aug 19 2025, 07:51
% Table:              Accumulated Probe Table 24 - 
% 
AR                                              lambda                                            aoa_root (rad)                                    aoa_tip (rad)                                     rot (1/s)                                         Max Wall Resolution (1), Max Wall Res             Thrust (N), Thrust                                Torque (N*m), Torque                              Thrust over Torque (1/m), T Over Q                Ideal Power (W), Ideal Power                      Mechanical Power (W), Mechanical Power            Main Rotor Power (W), Electrical Power            Motor Efficiency (1), Motor Efficiency            Propeller Efficiency (1), Propeller Efficiency    System Efficiency (1), System Efficiency          CB Power in VTOL (W), CB VTOL Power               Total Power in VTOL (W), VTOL Power               Time in VTOL in minutes (1), Time in VTOL         Thrust Coefficient (1), Thrust Coefficient        Torque Coefficient*10 (1), Torque Coefficient*10  Open Air Efficiency (1), Open Air Efficiency
14.89321353519506                                 0.32651586284443973                               0.19498453810839197                               0.09484932597466644                               26.079863316510508                                4.6227827660231915                                0.28966825086770553                               0.01282053188232078                               22.59408997431311                                 0.24427290219705705                               2.100831508216711                                 2.767341172254444                                 0.7591516106795194                                0.11627439004111668                               0.08826989048049237                               -0.4039645197543079                               2.363376652500137                                 1859.8812827189643                                0.007758216690321192                              0.00746309519692458                               0.16544858443605082
10.793385981276565                                0.9106846421337687                                0.3360250154959756                                0.06071821262996527                               21.61671603960346                                 6.847858289733142                                 0.30309331425134556                               0.014806958339095327                              20.469654017400565                                0.2611150491511957                                2.0111082169885903                                2.4880844503389485                                0.8082958023047087                                0.12983639912833048                               0.10494621640178828                               0.007862517486489803                              2.4959469678254376                                1761.095110057411                                 0.011755530572491428                              0.012465998886500192                              0.15008430662592293
11.646863679867032                                0.8461587295551607                                0.3263107313710292                                0.1366400680850427                                33.21164304198051                                 8.79155018999217                                  0.9540937359928887                                0.0353598839162182                                26.98237749460718                                 1.458796064111208                                 7.3787205085627585                                8.627466997080056                                 0.8552591984484049                                0.1977031197235787                                0.16908741170553698                               4.230457085862072                                 12.85792408294213                                 341.85922794733176                                0.015697056760273307                              0.012632055167336103                              0.19777179107415133
6.451432658901169                                 0.5173562736437772                                0.21439738064300368                               0.13388735645652744                               28.85569050538306                                 6.155794756218978                                 1.1445227205488364                                0.05646439180144906                               20.269814019664405                                1.9148645037252674                                10.237313291969459                                11.533502160908624                                0.8876153269964749                                0.18704756307764464                               0.16602628386505736                               8.49408859246186                                  20.02759075337049                                 219.47722290362145                                0.024850950373984486                              0.026596386887494317                              0.1487101089814097
4.034142044836009                                 0.7783563897370354                                0.30181802662057616                               0.05146949233051719                               30.16207789380254                                 6.891799042238018                                 1.3766947628680695                                0.09061202243638883                               15.193290314588573                                2.508945541831812                                 17.172239992968958                                19.30728745216759                                 0.8894175339499112                                0.14610473315415354                               0.12994811146037705                               15.240173608485057                                34.54746106065264                                 127.23366247617861                                0.026621343304998758                              0.03775207758084596                               0.11223007183282929
4.84178083209446                                  0.8227094481232831                                0.3552984197903044                                0.11819041520305976                               24.098463702220126                                6.621315936709221                                 1.3228040337181408                                0.07015680267506723                               18.854964640346235                                2.368747613611771                                 10.62280020893062                                 11.937598469809819                                0.8898607400638981                                0.22298711893502018                               0.1984274826802336                                11.22158913661832                                 23.159187606428127                                189.7994037916919                                 0.04045709874130405                               0.04634175959809702                               0.13894481572727857
9.105892049723249                                 0.937199902582867                                 0.42684505303029485                               0.08247463131834429                               32.31098231350896                                 8.597566927287993                                 1.255611022297519                                 0.050733916838380216                              24.74894706626809                                 2.200209866496091                                 10.299791246279009                                11.703597752491705                                0.8800534215289635                                0.21361693784725566                               0.18799431704901737                               7.3435785040228705                                19.047176256514575                                230.77436470388116                                0.0217398405158175                                0.019055003747282487                              0.18157976382530291
10.572421995254391                                0.3287456682722173                                0.34973541955571213                               0.12024862348673948                               22.998310879157117                                4.014866042163727                                 0.7134348605429228                                0.0287329542181753                                24.829847119988553                                0.9439865090950502                                4.1519879982906716                                4.7873583196243725                                0.867281644925305                                 0.22735771622742634                               0.19718317411618289                               2.876589206459266                                 7.663947526083641                                 573.5425490636416                                 0.024551355831069616                              0.02148640294590641                               0.1818577846631704
10.114971133303639                                0.5705413359814133                                0.39078178566754673                               0.03907554292767673                               37.08941576134665                                 7.642470973677331                                 1.4513210033473865                                0.05667364900377717                               25.60839171041659                                 2.7373505714585193                                13.207208584153369                                15.028699283675119                                0.8787991784824425                                0.2072618565851169                                0.1821415492977466                                8.536000330141635                                 23.564699613816753                                186.53324982011299                                0.019159322154670557                              0.016248415602026445                              0.18766757952852858
15.412200686211579                                0.5907691953918807                                0.40214488469465465                               0.09798520341998587                               39.874559758616954                                12.090248080324377                                2.317513291507525                                 0.0799910501589554                                28.972157346381167                                5.526572661071894                                 20.04089755400264                                 22.5639062706437                                  0.8881838682372311                                0.2757647279110065                                0.2449297827593852                                13.161940489408728                                35.72584676005242                                 123.03697179026777                                0.02652750527712453                               0.019896014611451393                              0.21220247749118026
9.036344261495923                                 0.7159517400522526                                0.2545304633401879                                0.08546095315749902                               39.08047584646634                                 8.124377512820095                                 1.381180008573268                                 0.060396972002763956                              22.868365131120488                                2.5397157545549245                                14.830468722488057                                16.86563745183783                                 0.8793304590377045                                0.17124986418695234                               0.15058522168565727                               9.280551361932465                                 26.146188813770298                                168.11628001726163                                0.01638118029661443                               0.01554704096491042                               0.1676940212462332
17.887913015414718                                0.6977769982119515                                0.22127628803605143                               0.1109324633090274                                34.60539920086201                                 11.703812421372497                                0.9482006304056723                                0.03530099373930533                               26.860451504794703                                1.4464078169440213                                7.67557046487989                                  9.013096332025908                                 0.8516019558790872                                0.18844303802071272                               0.1604784597502361                                4.218457798352367                                 13.23155413037828                                 332.2058736779952                                 0.014412853027210511                              0.011660174045117353                              0.19672749261389386
7.374914863053853                                 0.252142100517886                                 0.26132097092543943                               0.06966718803967342                               31.938239222781252                                4.788071153760943                                 1.3505444837108973                                0.05616372891995723                               24.046560114191333                                2.4582740439314827                                11.270593140505332                                12.742103132510975                                0.8845159251418124                                0.21811399038944124                               0.19292529799568892                               8.433856946152225                                 21.175960078663206                                207.57500409291887                                0.024084110952230457                              0.021760686829017332                              0.17614817667013077
12.627470906635741                                0.28191213638853535                               0.2834938361292505                                0.12461225221675273                               36.23237510635863                                 5.37709623083492                                  1.269036862629355                                 0.0448523214850088                                28.29367177914105                                 2.2398864364490354                                10.210842999060977                                11.781834476099815                                0.8666598584264877                                0.21936351745443772                               0.19011355498099938                               6.157167709470837                                 17.93900218557064                                 245.0303508818139                                 0.01760820342678188                               0.013525968205618074                              0.20718905824249867
5.581735928427013                                 0.45735720326567686                               0.38217574014905614                               0.1074525708406886                                35.518084159451185                                6.642401208376885                                 3.151334728424098                                 0.1348417281921328                                23.3706195454113                                  8.746144155089297                                 30.092184113745578                                34.07079184483095                                 0.8832252637624275                                0.2906450433119014                                0.25670504504039626                               23.70384276114439                                 57.774634605975365                                76.08183123923011                                 0.04510977137068295                               0.04186038431560759                               0.17150924944357496
16.38024278992114                                 0.8926351246758628                                0.2941294781425089                                0.053476634629038886                              33.764943654119605                                11.491861908614725                                0.8082097727675784                                0.03385391868058793                               23.873448163949522                                1.1379544570135218                                7.182156171305292                                 8.448881009331243                                 0.8500718809240021                                0.15844189820878102                               0.13468700242750783                               3.9234268207457355                                12.372307830076974                                355.2772902493045                                 0.0128920749269169                                0.011732063033402136                              0.17489144453862573
14.237234071397188                                0.4156904151535441                                0.31624190024613896                               0.045340415201903926                              23.527272650663036                                5.060792391950853                                 0.31894716448171373                               0.01339625297947511                               23.808684784497903                                0.2821959783272678                                1.9803173575538022                                2.531115838045174                                 0.7823890664297831                                0.1425003811893322                                0.11149074020460979                               -0.28453797406343634                              2.2465778639817366                                1956.5758527547443                                0.010491612093487979                              0.009576515250252288                              0.17436320854157572
8.262836028456757                                 0.970158566430497                                 0.197017087867274                                 0.08951816875364113                               27.698748814300004                                9.205333924251379                                 0.5394855578398883                                0.033249358254610596                              16.22544272008858                                 0.6193161172468367                                5.786597667905104                                 6.69343146353482                                  0.8645188494765262                                0.10702595079001669                               0.09252595184111655                               3.8000664163758713                                10.493497879910695                                418.8879676066044                                 0.012682531607138474                              0.016946500487369374                              0.11910940537249642
13.724987905187616                                0.22268628514886535                               0.4233607164787896                                0.07628622734404775                               30.785732817690853                                4.638698147232966                                 1.0686327721375843                                0.040344483825115095                              26.48770465796227                                 1.7310059318786908                                7.803932919573215                                 8.96617411600289                                  0.8703749022277747                                0.22181199527447476                               0.19305959369996845                               5.244039294328996                                 14.210213410331882                                309.32681115148296                                0.02054606377877759                               0.01686040927116407                               0.19394592141167116
16.077833128456565                                0.36940147324875205                               0.2695986125090645                                0.059824027604953645                              37.64690424086123                                 6.486079597221575                                 0.573119080005663                                 0.02050847760664915                               27.945471672643773                                0.6798106814810317                                4.851126063596853                                 6.254359709519515                                 0.775639120374408                                 0.14013461463769672                               0.10869388923158974                               1.1862549501649666                                7.4406146596844795                                590.7576458456722                                 0.0073662237328448255                             0.005729043604575495                              0.2046364105287615
5.979185179979211                                 0.4412625764083035                                0.41095045673855374                               0.06586366226368455                               24.881976652875316                                4.9254060567405284                                1.3895248427332079                                0.06298849426435037                               22.059978714551328                                2.561798592391904                                 9.847499632985937                                 11.055546907878387                                0.8907293067490337                                0.2601471122487486                                0.23172065694609098                               9.797452637245188                                 20.85299954512358                                 210.78981901325082                                0.04059330746715238                               0.039922969883370026                              0.16182727784832543
17.329835296651332                                0.6688248787485573                                0.3688539227923796                                0.10349418287892795                               26.73836319607689                                 9.710686715853358                                 0.8669773475586813                                0.03171968487781227                               27.332470385452233                                1.2645891889160952                                5.328973378089453                                 6.170135799342091                                 0.8636719760135055                                0.23730446733240684                               0.2049532182178122                                3.4876680644064586                                9.657803863748553                                 455.13452768483813                                0.022073200764190445                              0.017548994957026793                              0.20018576676803046
13.14850070049336                                 0.7759139887019468                                0.24742740213315617                               0.13034822366768944                               21.59401681693764                                 10.072398640317703                                0.5434944515332677                                0.0236829512083192                                22.94876372258675                                 0.6274010386791012                                3.213284091163117                                 3.7464625912853053                                0.8576848194447682                                0.19525227800570857                               0.16746491480750586                               1.8400158654683532                                5.5864784567536585                                786.8284168689545                                 0.02117943311652825                               0.020046362579728694                              0.16815077842542328
12.226263241179248                                0.6178846410260461                                0.17596435123435625                               0.042164316649735925                              28.62960253583579                                 7.145633034555634                                 0.2421567801600831                                0.016274183201450552                              14.8798116109753                                  0.18660987794181547                               2.927483040120738                                 3.7429280514715697                                0.7821371396572182                                0.06374413630560923                               0.049856656439989                                 0.31162608644016465                               4.054554137911735                                 1084.114270148559                                 0.005370324808664997                              0.007840085201625076                              0.10901842484197849
7.254192601737433                                 0.5337767164823779                                0.2329432071691814                                0.0778760789079853                                20.3219712717988                                  4.397023851476196                                 0.40324656900011807                               0.024254983018326074                              16.625308238535617                                0.40059803719273196                               3.0970390144388222                                3.5840803985593532                                0.8641098050377717                                0.12934872157731592                               0.11177149858405945                               1.957644197413639                                 5.541724595972992                                 793.1826859808505                                 0.017677711431649427                              0.023074755758792892                              0.1219295747400056
