% Model:              LS_cruise.mph
% Version:            COMSOL 6.3.0.420
% Date:               Sep 5 2025, 11:01
% Table:              Accumulated Probe Table 6 - 
% AR                     lambda                   aoa_root (deg)           aoa_tip (deg)            U_cruise (m/s)           Max wall resolution (1), wall_res_max Lift (N), Lift           Drag (N), Drag           Lift over drag (1), L_D  Cruise velocity (m/s), U_cruise
28.757                   0.7198                   12.4532                  7.7208                   20                       3.978702887884125                     0.811848547792497        0.1629826599814119       4.981195839392289        20
29.7489                  0.8788                   11.1194                  3.3416                   20                       4.005573745615229                     0.5359835767556356       0.12873831517320844      4.163357086307267        20
19.9275                  0.8914                   17.3303                  4.7191                   20                       4.138776410936948                     1.399157533629666        0.2513580263356471       5.5663929018973235       20
31.0963                  0.6196                   18.3923                  3.6117                   20                       3.994059927021831                     0.8335278432881028       0.1722930341236538       4.83784993123915         20
26.5251                  0.5331                   15.4265                  6.349                    20                       4.007630830278903                     1.0951343034394574       0.2116320402891496       5.174709377385354        20
23.7262                  0.942                    15.9889                  7.459                    20                       4.141268020337634                     1.0666170623415878       0.21946647660898844      4.8600455013542785       20
25.2466                  0.5126                   16.6103                  5.3818                   20                       4.089434429893544                     1.1818948599530485       0.2346346078686705       5.0371719274020235       20
22.227                   0.545                    19.5049                  7.0777                   20                       4.254935078695298                     1.5088541582900843       0.3082977648559577       4.89414562896701         20
19.5166                  0.8588                   10.4124                  5.83                     20                       4.003341107765427                     1.1136788980297516       0.20552959839692747      5.418581589786248        20
