% Model:              LS_cruise.mph
% Version:            COMSOL 6.3.0.420
% Date:               Aug 28 2025, 08:30
% Table:              Accumulated Probe Table 4 - 
% AR                                              lambda                                            aoa_root (rad)                                    aoa_tip (rad)                                     U_cruise (m/s)                                    Max Wall Resolution (1), Max Wall Res             Lift (N), Lift                                    Drag (N), Drag                                    Lift over drag (1), L_D
8.224693448682892                                 0.6632579314222198                                0.15326074876551904                               0.08738649027718644                               31.079863316510508                                8.298707886111268                                 1.852448917258486                                 0.3069572266926344                                6.034876380719322
5.881934846443752                                 0.9553423210668843                                0.24728773369057477                               0.04756685804170176                               26.61671603960346                                 7.5024142348726075                                2.2475696917528145                                0.37126114424738105                               6.053878049395866
6.369636388495447                                 0.9230793647775803                                0.24081154427394386                               0.1361423560726254                                38.21164304198051                                 9.402714222156472                                 5.101827066922974                                 0.8706681248150839                                5.859669053586315
3.4008186622292396                                0.7586781368218886                                0.1662026437885935                                0.13293085917269096                               33.85569050538306                                 8.75287227873903                                  6.335035363691568                                 0.934714022856307                                 6.777511847241698
2.0195097399062907                                0.8891781948685177                                0.2244830744403085                                0.036776684359012324                              35.16207789380254                                 9.00929364779766                                  8.91374095143355                                  1.4191354132214353                                6.281106699465253
2.481017618339691                                 0.9113547240616415                                0.26013666988679396                               0.11461776104364532                               29.098463702220126                                8.05926782566541                                  7.414272174440158                                 1.1870531949137229                                6.2459477015931375
4.917652599841856                                 0.9685999512914334                                0.30783442538012096                               0.07294934651147726                               37.31098231350896                                 9.340764210943183                                 6.783826225286024                                 1.0845606352506696                                6.254907291299679
5.755669711573939                                 0.6643728341361086                                0.2564280030637325                                0.11701900404127166                               27.998310879157117                                7.912991983704521                                 3.338745793111388                                 0.5745036651125238                                5.8115308845896605
5.494269219030651                                 0.7852706679907067                                0.2837922471382889                                0.022317076722365128                              42.08941576134665                                 10.053186963957328                                7.031305430079377                                 1.083058553799581                                 6.49208245058606
8.521257534978044                                 0.7953845976959403                                0.29136764648969415                               0.09104501396339244                               44.874559758616954                                10.259797157856413                                4.839348410963346                                 0.9524647519014439                                5.080868768426714
4.877911006569098                                 0.8579758700261262                                0.192958032253383                                 0.07643338865715779                               44.08047584646634                                 10.38743997556107                                 7.450688979956593                                 1.0248376058392048                                7.27011668727308
9.935950294522696                                 0.8488884991059757                                0.17078858205062536                               0.10615015050060757                               39.60539920086201                                 9.470353292016469                                 2.0377745031805823                                0.44192513924778715                               4.6111305336671595
3.928522778887916                                 0.6260710502589429                                0.19748503731021735                               0.05800732935302792                               36.93823922278125                                 9.241359412031406                                 6.541490558861227                                 0.9084786094236917                                7.200489357708629
6.929983375220424                                 0.6409560681942676                                0.2122669474460914                                0.12210990422628712                               41.23237510635863                                 9.8372816751461                                   5.377768582132749                                 0.8558459056049249                                6.283571080861408
2.903849101958293                                 0.7286786016328384                                0.27805488345929513                               0.1020902759542123                                40.518084159451185                                9.902784291198712                                 13.581047264218148                                2.1777941794926834                                6.236148205420334
9.074424451383507                                 0.9463175623379314                                0.21935737545493034                               0.0391183503739543                                38.764943654119605                                9.342555579291062                                 2.111373109730376                                 0.4766848884719599                                4.429284755592946
7.849848040798393                                 0.707845207576772                                 0.23409899019068367                               0.02962609437563019                               28.527272650663036                                7.915362649578406                                 1.932802203798007                                 0.31560622456791676                               6.124094055635706
4.43590630197529                                  0.9850792832152485                                0.15461578193810707                               0.08116680685265691                               32.698748814300004                                8.579888245600555                                 3.6141001856213517                                0.5526328159515584                                6.539785697304934
7.557135945821495                                 0.6113431425744327                                0.3055115343457841                                0.06572954187479797                               35.78573281769086                                 9.1317714789379                                   4.1467316075625185                                0.7522732380211089                                5.512267880844328
8.901618930546608                                 0.684700736624376                                 0.20300346503263403                               0.04652364217918818                               42.64690424086123                                 9.912327305403313                                 3.1092606892937065                                0.57915390564188                                  5.368625954179991
3.130962959988121                                 0.7206312882041517                                0.29723802785229353                               0.053569882614374245                              29.881976652875316                                8.294888894160902                                 6.648674508344199                                 1.0838174929859152                                6.13449639941418
9.61704874094362                                  0.8344124393742787                                0.2691736718881774                                0.09747215666549155                               31.73836319607689                                 8.159846127047553                                 1.8567672186834705                                0.405045917479837                                 4.584090688374607
7.227714685996205                                 0.8879569943509733                                0.18822265811536185                               0.12880187091904663                               26.59401681693764                                 7.589798800962836                                 1.8426753772833497                                0.314811039635885                                 5.853274330578158
6.700721852102427                                 0.8089423205130231                                0.14058062418282855                               0.025920646064767516                              33.62960253583579                                 8.657332262834313                                 1.9629539266250522                                0.35139937395724397                               5.586105360745155
3.859538629564247                                 0.766888358241189                                 0.17856652813937868                               0.06758436869939179                               25.3219712717988                                  7.454191589785389                                 2.804832303625395                                 0.41158165630663346                               6.814765091318256
4.028349336991313                                 0.8501752781588172                                0.21383143006105804                               0.017462603070746503                              44.998475842097235                                10.36493286467018                                 8.21588339641528                                  1.2134717552506393                                6.770560057014525
4.666057003505563                                 0.6142356348117665                                0.17552516389931694                               0.017462603070746503                              44.998475842097235                                10.330688107321727                                6.775334347359556                                 0.9603354341669672                                7.055174792375279
4.666463445612965                                 0.7333231722806482                                0.1974803294123889                                0.13962323664261195                               44.99949194736574                                 10.440828380235438                                9.748339226001654                                 1.4717045506758382                                6.623842551499217
4.489254686785552                                 0.6000304831580552                                0.16906098148452314                               0.0781673943076168                                44.998475842097235                                10.33454557472603                                 8.023708245296195                                 1.1327062094279168                                7.083662275806398
3.6954732510288064                                0.605944215820759                                 0.1530734356767409                                0.017481224172352903                              40.55098308184728                                 9.78324381567091                                  5.958946297188267                                 0.8372393434084654                                7.117374910893389
4.925773510135651                                 0.8701112635269014                                0.17193395144665372                               0.017462603070746503                              44.998475842097235                                10.386426331656217                                5.606918792655823                                 0.8233683678360987                                6.809733057138703
3.494284407864655                                 0.6366712391403749                                0.17916957949942702                               0.05842902660483075                               44.99542752629172                                 10.455284567501316                                9.907242186182009                                 1.330055287846259                                 7.448744632431545
2.888821148537655                                 0.6000033870175617                                0.17194281863789485                               0.059689054480197276                              44.99949194736574                                 10.370746039732163                                11.076992229011811                                1.5201856372707032                                7.286604976020638
3.4442920286541687                                0.600010161052685                                 0.1859263792251786                                0.049118475801629785                              44.99949194736574                                 10.465028153562713                                10.072311835793673                                1.3835902504538335                                7.279837244075577
3.3504039018442313                                0.6963572626124066                                0.15804792996302255                               0.06429467361084736                               44.998475842097235                                10.520763164607581                                9.326073350214028                                 1.2610307651768369                                7.395595419042936
3.7117309353248995                                0.6697149824721841                                0.17419508521314536                               0.06739819054524768                               44.99949194736574                                 10.410956563287119                                9.419084192439641                                 1.257514550336251                                 7.490238733159024
3.4711172077427226                                0.6691053193110806                                0.17709465674899938                               0.07442455288473                                  44.998475842097235                                10.431062100200318                                10.210196649035558                                1.381660954013819                                 7.389798936833415
3.975105420921608                                 0.6790225067316974                                0.17293594405690296                               0.05499032984151518                               44.99949194736574                                 10.331972282868842                                8.459909064463869                                 1.1454711945489722                                7.385527549468363
3.662144998221816                                 0.6404105065284763                                0.15359659995996838                               0.06328913412410164                               44.99949194736574                                 10.418265744268373                                8.390219526789643                                 1.1880752779192898                                7.062026862038302
3.1906721536351164                                0.8982167352537722                                0.16799691853558588                               0.03932377635666237                               41.008230452674894                                9.852671139514888                                 7.222662679686793                                 1.0304634850387326                                7.009139852651171
3.0004572473708278                                0.7854290504496266                                0.18922497436688407                               0.06453674793173059                               44.998475842097235                                10.478427081327759                                11.184185601743852                                1.5486049892237304                                7.222103557441171
3.227251943301326                                 0.691540923639689                                 0.16975262240133235                               0.017481224172352903                              42.97439414723365                                 10.0807259877541                                  7.809106464750277                                 1.1190000515367724                                6.978647100172772
3.5393994817863135                                0.8073769242493523                                0.1711359042349508                                0.06546780301205067                               44.998475842097235                                10.414105302502705                                9.180189337908262                                 1.2471919073648494                                7.360687063232135
4.6668698877203685                                0.7036935426510187                                0.19143290498592888                               0.06591470945060432                               44.99949194736574                                 10.424690702618225                                8.191874021289372                                 1.1027678769014404                                7.428466309978959
3.2894375857338822                                0.6957475994513032                                0.16823633269909677                               0.06345672403855927                               40.871056241426615                                9.770367150177872                                 8.12136748269601                                  1.1193550737411813                                7.255398821351878
3.7117309353248995                                0.6697149824721841                                0.17419508521314536                               0.06739819054524768                               44.99949194736574                                 10.410956563287119                                9.41908419243964                                  1.2575145503362515                                7.490238733159024
