% Model:              LS_cruise.mph
% Version:            COMSOL 6.3.0.420
% Date:               Sep 4 2025, 19:29
% Table:              Accumulated Probe Table 6 - 
% AR                     lambda                   aoa_root (deg)           aoa_tip (deg)            U_cruise (m/s)           Max wall resolution (1), wall_res_max Lift (N), Lift           Drag (N), Drag           Lift over drag (1), L_D  Cruise velocity (m/s), U_cruise
28.757                   0.7198                   12.4532                  7.7208                   25                       4.540345414340455                     1.2847845932467035       0.24775286269198352      5.185750748898507        25
29.7489                  0.8788                   11.1194                  3.3416                   25                       4.566515744173591                     0.8493951588663581       0.1940742419743255       4.376650658147238        25
19.9275                  0.8914                   17.3303                  4.7191                   25                       4.729567927050519                     2.2164010645145473       0.3813269438139731       5.812337943777187        25
31.0963                  0.6196                   18.3923                  3.6117                   25                       4.556773920213399                     1.3212724394687425       0.2631935113389048       5.020155826590222        25
26.5251                  0.5331                   15.4265                  6.349                    25                       4.574617460566504                     1.7322914769358386       0.323349859577685        5.357328681689607        25
23.7262                  0.942                    15.9889                  7.459                    25                       4.717920941364026                     1.6888534575805831       0.33465583112406494      5.04653826562037         25
25.2466                  0.5126                   16.6103                  5.3818                   25                       4.664216743279751                     1.870637374441018        0.3588729051529625       5.212534430939267        25
22.227                   0.545                    19.5049                  7.0777                   25                       4.849014066757074                     2.3827203760573226       0.47269558334958955      5.040707931250421        25
19.5166                  0.8588                   10.4124                  5.83                     25                       4.549375801110881                     1.7646301866156884       0.3076918655769943       5.735056347058747        25
21.3969                  0.8101                   14.3888                  6.1489                   25                       4.629039331361579                     1.9269814256626174       0.3497225962542311       5.510028366201985        25
25.3346                  0.7961                   13.7598                  5.689                    25                       4.671884121175235                     1.4743092110756686       0.27798152803109044      5.303622947603833        25
28.1597                  0.591                    12.8153                  4.0212                   25                       4.647122054972306                     1.2920119764940103       0.2408575624045118       5.364215944044642        25
30.6026                  0.5744                   17.6018                  3.1707                   25                       4.569540612807767                     1.1778497974798745       0.27361789033814093      4.304725089519075        25
22.6762                  0.9229                   10.186                   6.9652                   25                       4.576720256609026                     1.5067907359031654       0.26806213259132006      5.621050318958607        25
24.4518                  0.7666                   11.2931                  3.5291                   25                       4.616696965533781                     1.2858222129421575       0.24527608164926717      5.242346519465444        25
25.767                   0.7282                   11.9463                  5.4899                   25                       4.567023620035612                     1.3797794611339702       0.2559135622974112       5.391583973695199        25
26.7735                  0.9114                   14.782499999999999       6.7005                   25                       4.519161489610738                     1.3772066279886628       0.27246278346630404      5.054659614306497        25
18.9254                  0.8231                   18.866                   7.384799999999999        25                       4.976453038814302                     2.694414304230094        0.48444396891040165      5.561869849035996        25
27.5308                  0.6426                   18.4644                  5.0554                   25                       4.782153167594893                     1.6477692523505976       0.3189319588734786       5.166522847602971        25
20.9572                  0.9923                   17.0273                  4.2356                   25                       4.602862328944006                     1.9235290008749857       0.33507236400495005      5.740637568207711        25
29.9744                  0.7542                   12.2868                  7.832999999999999        25                       4.550447143470094                     1.218437633777146        0.22751332969617713      5.355456031540026        25
28.4204                  0.6829                   19.8312                  6.4006                   25                       4.747687208976138                     1.5219482804066995       0.32677313502879884      4.657507356816734        25
20.5814                  0.6238                   13.2693                  3.8272                   25                       4.600913493207612                     1.931957998460084        0.338216825346182        5.712187725973205        25
23.1866                  0.9656                   14.961500000000001       4.9633                   25                       4.663127344312913                     1.6234142686704744       0.2872958793360725       5.650670216440662        25
23.8209                  0.6773                   16.1859                  4.4966                   25                       4.591765608083916                     1.8824619686604809       0.3259722669134467       5.774914493447744        25
19.1039                  0.7726                   19.4908                  5.7004                   25                       4.76553549415534                      2.6110291812650996       0.48307811580208937      5.404983367813754        25
