% Model:              LS_cruise.mph
% Version:            COMSOL 6.3.0.420
% Date:               Sep 3 2025, 10:41
% Table:              Accumulated Probe Table 4 - 
% AR                                              lambda                                            aoa_root (rad)                                    aoa_tip (rad)                                     Max Wall Resolution (1), Max Wall Res             Lift (N), Lift                                    Drag (N), Drag                                    Lift over drag (1), L_D
2.8940462969202216                                0.38530260527401605                               0.15201951296615746                               0.028024453241253907                              8.819978717678996                                 5.58830429655674                                  0.8331120342284195                                6.707746457812613
8.795669426119492                                 0.6003519610075164                                0.1651452204862971                                0.054330836263703886                              9.491624210137028                                 2.008445706293842                                 0.2842151191165523                                7.066639215172113
7.264224733412168                                 0.6983261361297124                                0.12493268731843254                               0.003840646733763555                              9.829238984986082                                 1.6616050630493016                                0.2565823378374376                                6.475913646488177
14.258829084245502                                0.5679760249503052                                0.11388219030862454                               0.03206903489073236                               15.863811582822114                                1.5538549297630937                                0.18215018915299594                               8.530624848585488
13.563307049332751                                0.8248146372674412                                0.1817773356788853                                0.01630751249928288                               15.050275863008634                                2.018447079739365                                 0.255313307299703                                 7.905765277522271
12.09109360542918                                 0.41710074766485905                               0.19859753102462158                               0.00907718327748197                               11.261978955481196                                1.4955615343938016                                0.22383264655858007                               6.681605911327115
