% Model:              LS_cruise.mph
% Version:            COMSOL 6.3.0.420
% Date:               Sep 5 2025, 18:19
% Table:              Accumulated Probe Table 7 - 
% AR                                              lambda                                            aoa_root (deg)                                    aoa_tip (deg)                                     Max wall resolution (1), wall_res_max             Lift (N), Lift                                    Drag (N), Drag                                    Lift over drag (1), L_D                           Cruise velocity (m/s), U_cruise
20.96626385724325                                 0.9100545429063998                                8.012926003389083                                 17.510697173523504                                6.64047258609132                                  1.479134735268479                                 0.3450451868643479                                4.286785590926066                                 20
31.06530047805182                                 0.8035251022981922                                26.347152478333324                                19.30230956843685                                 6.432750800958068                                 0.9414115986187063                                0.4740425702114073                                1.9859220622292801                                20
25.37937051959642                                 0.553490311232477                                 16.61631977587252                                 8.987321815403664                                 6.58306751331553                                  1.1731478555930461                                0.34656071902997737                               3.3851149053380447                                20
23.484719411539622                                0.99809700143763                                  18.412080369286333                                16.95640552856956                                 6.631946435335295                                 1.4478961250605424                                0.44882830729415996                               3.2259465402025054                                20
30.48062463928215                                 0.6946502374940331                                33.72879276896283                                 11.799196166599284                                6.479400462858711                                 1.0512594629146974                                0.5399782112162123                                1.9468553380087472                                20
28.17146442486514                                 0.8341127890710138                                8.768363261369915                                 6.636532206349088                                 6.660451834199165                                 0.6677585864578881                                0.1627653053292255                                4.102585530173107                                 20
22.414730072432413                                0.8623079941122096                                33.878369890095044                                5.683768725977455                                 6.60648919070108                                  1.528184045738926                                 0.6326881216025494                                2.4153828617299715                                20
28.624544682088626                                0.926101014801807                                 21.68823616014874                                 12.545050685717568                                6.5870024945684165                                1.0073151141606949                                0.3487777076739618                                2.8881292926620636                                20
20.3780933952463                                  0.5988295401249633                                16.063085497295223                                0.9398402081711663                                6.672838746230682                                 1.4121373912294042                                0.3024743919005957                                4.6686180021926775                                20
18.988442611402892                                0.784622052835938                                 28.918661774967845                                14.143315860145506                                6.642256679648301                                 2.259744491962338                                 0.8220927839889991                                2.7487706205101263                                20
24.843640687678196                                0.9718367108472342                                24.01127690854465                                 5.081645977298616                                 6.5305993131101046                                1.1612353574153669                                0.35159620720486673                               3.3027527988626533                                20
27.152245845272585                                0.5346970741672634                                12.599130582749275                                19.711117065887084                                6.624488828894533                                 1.142066132838159                                 0.3658832398189366                                3.1213950477844516                                20
29.490600081577455                                0.8779990904413668                                29.088646118921567                                3.506620675540651                                 6.517488984477015                                 0.8867901117638375                                0.35207145442898785                               2.5187787893854985                                20
29.13717265116979                                 0.5436249695443329                                24.98573976820926                                 15.570764117329947                                6.624815832211273                                 1.1640595113753613                                0.544023947341537                                 2.139721085925961                                 20
25.97711071097451                                 0.6868206668385072                                30.02577141141971                                 0.19615039577053217                               6.410062818175159                                 1.2214510460168684                                0.4627864075679949                                2.63934079748746                                  20
29.94683646024216                                 0.7408795750302364                                17.997300384314524                                -0.08937097254957571                              6.504957258076544                                 0.7619334919966074                                0.20826626492817776                               3.658458523080375                                 20
20.10152705329457                                 0.9036563291210141                                20.207170827912215                                9.607204901750434                                 6.67919823440255                                  1.7657451229422985                                0.4475550010395771                                3.945314249289675                                 20
30.639166624509077                                0.7725939872697243                                13.041907661543963                                16.208659091355315                                6.575908155003955                                 0.8409257365627429                                0.28209162226972007                               2.9810376139377057                                20
21.317127760851495                                0.6317692321663579                                32.75407000138462                                 20.174074037404278                                6.695594498629402                                 1.8995224806276905                                1.0307124370758873                                1.842921858997454                                 20
23.11470743133733                                 0.6155036100215461                                20.746801691255133                                18.139895612854886                                6.5755051673935245                                1.5625543028132354                                0.6129754266741002                                2.5491304134186716                                20
26.235235308873737                                0.9375582313386734                                27.454480219166932                                22.45666301538037                                 6.365716418982479                                 1.2145969915513586                                0.6407228753241716                                1.895666657658879                                 20
21.549463760400172                                0.9894667350371067                                30.96343743252554                                 15.396033193629131                                6.526908811484292                                 1.6961459226632445                                0.7477286122364545                                2.2683977781592124                                20
30.9386448223365                                  0.5879589022909356                                14.97534094548022                                 8.431253570013025                                 6.486813316502117                                 0.8385009821988665                                0.2405524502637417                                3.4857303730622324                                20
22.740328078938237                                0.7257145541839297                                22.29846468000087                                 6.407905752663888                                 6.604705394279404                                 1.5286162055325896                                0.4228589369144927                                3.6149554191441737                                20
23.587159045724583                                0.9561324974720977                                10.209395494978637                                7.192469547686578                                 6.547475553891224                                 0.9115904729209133                                0.21243685593306083                               4.291112617521306                                 20
24.15170588275685                                 0.6200251680046336                                32.1833679036874                                  10.288133239447587                                6.565971535745001                                 1.5723030733877057                                0.7159030352044301                                2.1962514419829566                                20
19.828118276807256                                0.8469698498010503                                11.004678203522264                                1.4838317473761244                                6.607105314657202                                 0.9119866308457166                                0.2080643979970418                                4.383194047732679                                 20
21.004519473796496                                0.8201324122484239                                19.54691879403326                                 21.230055597259078                                6.806911462467247                                 1.670884132890001                                 0.6947628301350438                                2.4049705315484773                                20
27.972332870345266                                0.7165271378654071                                22.91016393035253                                 9.14978070774152                                  6.508533083613516                                 1.1801072804034207                                0.3714767966855885                                3.176799441937266                                 20
26.321078069984843                                0.5693353593149415                                13.46201337062082                                 -1.9006609039899678                               6.697220419184321                                 0.7966959901617636                                0.18977479045323883                               4.198112869781155                                 20
22.94222348761174                                 0.5005995898044722                                25.5784224437623                                  3.1676023429493094                                6.644269773986951                                 1.6473687139628583                                0.5246551738113898                                3.1399074977102535                                20
21.75866048876191                                 0.5164052066326313                                6.9722888707682715                                7.609420674192196                                 6.635304049704761                                 0.994151496870782                                 0.19592956209798235                               5.074025002789612                                 20
19.535713808406825                                0.733071880946961                                 12.084290869364176                                11.104551933590997                                6.614866838066652                                 1.599231062568655                                 0.33318542661834877                               4.799822965848123                                 20
27.424492514655782                                0.6497089420662303                                6.153207082851405                                 12.148608853199187                                6.564240472833041                                 0.7689850716383966                                0.1894908422691802                                4.058164829654506                                 20
19.110522095179228                                0.6655328746168858                                30.639058995530814                                2.498913800110972                                 6.588635353400978                                 2.0163539720686248                                0.7041499453913261                                2.8635292600186903                                20
20.57889321758305                                 0.8892856182991743                                24.25919788174437                                 -0.9437143680799351                               6.614816170695384                                 1.370182233124183                                 0.38136459557488184                               3.592840680605717                                 20
30.12659009756685                                 0.9652019258954037                                17.08221688607715                                 2.968594816343996                                 6.576442242041658                                 0.6430500727280906                                0.19555665675366124                               3.28830571867532                                  20
26.532259028483224                                0.7559968316545111                                19.282861259496435                                22.64592129549269                                 6.498360702503081                                 1.2585040917993957                                0.5248281102599534                                2.3979357568634114                                20
25.610142486448154                                0.762637454753949                                 6.535148408400408                                 21.628728888056962                                6.517283081562824                                 1.1607348283875498                                0.3022377095367394                                3.8404699074999233                                20
24.621086304299705                                0.7964843639025114                                14.412363815222689                                13.383156957244228                                6.652782016610426                                 1.2085512831880123                                0.33558237183984574                               3.601355090739941                                 20
27.593823214482732                                0.9465793796705922                                10.75009389816464                                 18.889494317327824                                6.610545537213927                                 1.0302172927687594                                0.3021088312980757                                3.4100866510330365                                20
24.311471376681688                                0.8121370923402018                                27.862569405579606                                14.600352185769669                                6.523746834875937                                 1.4919791457276195                                0.605468735703394                                 2.464172066612714                                 20
23.821470976973785                                0.7048091920819398                                9.435354138953594                                 4.792936594327954                                 6.560402131101786                                 0.7785597135118787                                0.1940509759291135                                4.01214015948204                                  20
26.958255987600516                                0.6705405629371339                                31.703915759417093                                20.61869647883179                                 6.648910101285681                                 1.2701279903835347                                0.7838410713394538                                1.6203896897276606                                20
28.941189368189235                                0.5294320407895098                                26.940123893703497                                4.258647674582297                                 6.466363980550685                                 1.2138171782753227                                0.4303224851002321                                2.820715208485089                                 20
19.385522489436184                                0.576677212754141                                 23.211066370139793                                10.748646242907533                                6.631262634100453                                 2.2157408746461478                                0.6146498350790114                                3.6048832167364373                                20
25.038302622599605                                0.8569397237751989                                15.622213995722843                                -1.081193022900423                                6.583598147357937                                 0.8036820273171877                                0.2023201445519918                                3.972328257756161                                 20
29.569126918988538                                0.6519317110849594                                5.229095521614688                                 1.7670571986112247                                6.617168983854884                                 0.36120507174174776                               0.12026076981967984                               3.0035153798145644                                20
22.246226145112395                                0.60016759409784                                  7.8962887494056675                                17.455800580560837                                6.5941769012653895                                1.365797302723602                                 0.30681371061998675                               4.451552376729508                                 20
28.474731842610986                                0.8972656436020978                                34.74269813401621                                 13.693416948099797                                6.539538119719884                                 1.0578455228459125                                0.5673553422905044                                1.8645202468266557                                20
